<?xml version="1.0" encoding="UTF-8"?>

<!-- generated on 2024-11-07 20:50:34 by Eclipse SUMO GUI Version 1.19.0
<configuration xmlns:xsi="http://www.w3.org/2001/XMLSchema-instance" xsi:noNamespaceSchemaLocation="http://sumo.dlr.de/xsd/sumoConfiguration.xsd">

    <input>
        <net-file value="C:\Users\justi\Work\TPAT\sumo_webapp\sumo_files\network0.xml"/>
        <route-files value="C:\Users\justi\Work\TPAT\sumo_webapp\sumo_files\routes.rou.xml"/>
        <additional-files value="C:\Users\justi\Work\TPAT\sumo_webapp\sumo_files\edgedata.add.xml,C:\Users\justi\Work\TPAT\sumo_webapp\sumo_files\vtypes.add.xml"/>
    </input>

    <output>
        <fcd-output value="C:\Users\justi\Work\TPAT\sumo_webapp\sumo_files\fc.out.xml"/>
    </output>

    <time>
        <begin value="0"/>
        <end value="3600"/>
    </time>

    <processing>
        <ignore-route-errors value="true"/>
        <collision.action value="teleport"/>
        <time-to-teleport value="100"/>
    </processing>

    <report>
        <xml-validation value="never"/>
        <no-warnings value="true"/>
        <step-log.period value="100"/>
    </report>

    <random_number>
        <random value="true"/>
    </random_number>

    <gui_only>
        <delay value="50"/>
    </gui_only>

</configuration>
-->

<meandata xmlns:xsi="http://www.w3.org/2001/XMLSchema-instance" xsi:noNamespaceSchemaLocation="http://sumo.dlr.de/xsd/meandata_file.xsd">
    <interval begin="0.00" end="3600.00" id="1">
        <edge id="155448017#1" sampledSeconds="62.69" traveltime="5.68" overlapTraveltime="6.27" density="0.42" laneDensity="0.42" occupancy="0.16" waitingTime="0.00" timeLoss="11.07" speed="7.28" speedRelative="0.81" departed="0" arrived="0" entered="10" left="10" laneChangedFrom="0" laneChangedTo="0"/>
    </interval>
</meandata>
